version 3
run Single-UE-0-20241125-00:43:57-17868
attr configname Single-UE
attr datetime 20241125-00:43:57
attr datetimef 20241125-004357
attr experiment Single-UE
attr inifile omnetpp.ini
attr iterationvars ""
attr iterationvarsd ""
attr iterationvarsf ""
attr measurement ""
attr network simu5g.simulations.NR.networks.SingleCell_Standalone
attr processid 17868
attr repetition 0
attr replication #0
attr resultdir results
attr runnumber 0
attr seedset 0
config image-path ../images;../../simu5g/images;../../inet4.5/images
config *.gnb.mobility.initialX 500m
config *.gnb.mobility.initialY 500m
config *.numUe 1
config *.ue[*].mobility.initialX 500m
config *.ue[*].mobility.initialY 900m
config *.ue[*].macCellId 0
config *.ue[*].masterId 0
config *.ue[*].nrMacCellId 1
config *.ue[*].nrMasterId 1
config *.ue[*].numApps 1
config *.server.numApps 1
config *.ue[*].app[*].typename CbrReceiver
config *.ue[*].app[*].localPort 1000
config *.server.app[*].typename CbrSender
config *.server.app[*].PacketSize 1000
config *.server.app[*].sampling_time 0.01s
config *.server.app[*].destAddress "\"ue[\"+string(ancestorIndex(0))+\"]\""
config *.server.app[*].destPort 1000
config *.server.app[*].localPort 3088+ancestorIndex(0)
config *.server.app[*].startTime uniform(0.01s,0.05s)
config output-scalar-file-append false
config network simu5g.simulations.NR.networks.SingleCell_Standalone
config sim-time-limit 10s
config warmup-period 1s
config seed-set 0
config output-scalar-file results/Single-UE/0.sca
config output-vector-file results/Single-UE/0.vec
config **.routingRecorder.enabled false
config **.amcType "\"NRAmc\""
config **.targetBler 0.01
config **.blerShift 5
config *.configurator.config "xmldoc(\"./demo.xml\")"
config **.mobility.constraintAreaMaxX 1000m
config **.mobility.constraintAreaMaxY 1000m
config **.mobility.constraintAreaMinX 0m
config **.mobility.constraintAreaMinY 0m
config **.mobility.constraintAreaMinZ 0m
config **.mobility.constraintAreaMaxZ 0m
config **.mobility.initFromDisplayString false

vector 0 SingleCell_Standalone.server.udp passedUpPk:vector(count) ETV
attr interpolationmode none
attr recordingmode vector(count)
attr source packetSentToUpper
attr title "packets passed up, count"
vector 1 SingleCell_Standalone.server.udp droppedPkWrongPort:vector(count) ETV
attr interpolationmode none
attr recordingmode vector(count)
attr source packetDropReasonIsNoPortFound(packetDropped)
attr title "packets dropped (wrong port), count"
vector 2 SingleCell_Standalone.server.udp droppedPkBadChecksum:vector(count) ETV
attr interpolationmode none
attr recordingmode vector(count)
attr source packetDropReasonIsIncorrectlyReceived(packetDropped)
attr title "packets dropped (checksum error), count"
vector 3 SingleCell_Standalone.upf.udp passedUpPk:vector(count) ETV
attr interpolationmode none
attr recordingmode vector(count)
attr source packetSentToUpper
attr title "packets passed up, count"
vector 4 SingleCell_Standalone.upf.udp droppedPkWrongPort:vector(count) ETV
attr interpolationmode none
attr recordingmode vector(count)
attr source packetDropReasonIsNoPortFound(packetDropped)
attr title "packets dropped (wrong port), count"
vector 5 SingleCell_Standalone.upf.udp droppedPkBadChecksum:vector(count) ETV
attr interpolationmode none
attr recordingmode vector(count)
attr source packetDropReasonIsIncorrectlyReceived(packetDropped)
attr title "packets dropped (checksum error), count"
vector 6 SingleCell_Standalone.iUpf.udp passedUpPk:vector(count) ETV
attr interpolationmode none
attr recordingmode vector(count)
attr source packetSentToUpper
attr title "packets passed up, count"
vector 7 SingleCell_Standalone.iUpf.udp droppedPkWrongPort:vector(count) ETV
attr interpolationmode none
attr recordingmode vector(count)
attr source packetDropReasonIsNoPortFound(packetDropped)
attr title "packets dropped (wrong port), count"
vector 8 SingleCell_Standalone.iUpf.udp droppedPkBadChecksum:vector(count) ETV
attr interpolationmode none
attr recordingmode vector(count)
attr source packetDropReasonIsIncorrectlyReceived(packetDropped)
attr title "packets dropped (checksum error), count"
vector 9 SingleCell_Standalone.gnb.udp passedUpPk:vector(count) ETV
attr interpolationmode none
attr recordingmode vector(count)
attr source packetSentToUpper
attr title "packets passed up, count"
vector 10 SingleCell_Standalone.gnb.udp droppedPkWrongPort:vector(count) ETV
attr interpolationmode none
attr recordingmode vector(count)
attr source packetDropReasonIsNoPortFound(packetDropped)
attr title "packets dropped (wrong port), count"
vector 11 SingleCell_Standalone.gnb.udp droppedPkBadChecksum:vector(count) ETV
attr interpolationmode none
attr recordingmode vector(count)
attr source packetDropReasonIsIncorrectlyReceived(packetDropped)
attr title "packets dropped (checksum error), count"
vector 12 SingleCell_Standalone.ue[0].udp passedUpPk:vector(count) ETV
attr interpolationmode none
attr recordingmode vector(count)
attr source packetSentToUpper
attr title "packets passed up, count"
vector 13 SingleCell_Standalone.ue[0].udp droppedPkWrongPort:vector(count) ETV
attr interpolationmode none
attr recordingmode vector(count)
attr source packetDropReasonIsNoPortFound(packetDropped)
attr title "packets dropped (wrong port), count"
vector 14 SingleCell_Standalone.ue[0].udp droppedPkBadChecksum:vector(count) ETV
attr interpolationmode none
attr recordingmode vector(count)
attr source packetDropReasonIsIncorrectlyReceived(packetDropped)
attr title "packets dropped (checksum error), count"
vector 15 SingleCell_Standalone.gnb.cellularNic.mac avgServedBlocksUl:vector ETV
attr recordingmode vector
attr source avgServedBlocksUl
attr title "Avg Served Blocks Ul"
attr unit blocks
vector 16 SingleCell_Standalone.gnb.cellularNic.mac avgServedBlocksDl:vector ETV
attr recordingmode vector
attr source avgServedBlocksDl
attr title "Avg Served Blocks Dl"
attr unit blocks
vector 17 SingleCell_Standalone.server.udp packetSent:vector(packetBytes) ETV
attr interpolationmode none
attr recordingmode vector(packetBytes)
attr source packetSent
attr title "packets sent, packetBytes"
vector 18 SingleCell_Standalone.server.ppp[0].queue incomingPacketLengths:vector ETV
attr interpolationmode none
attr recordingmode vector
attr source packetLength(packetPushStarted)
attr title "incoming packet lengths"
attr unit b
vector 19 SingleCell_Standalone.server.ppp[0].queue queueingTime:vector ETV
attr interpolationmode none
attr recordingmode vector
attr source queueingTime(packetPulled)
attr title "queueing times"
attr unit s
vector 20 SingleCell_Standalone.server.ppp[0].queue outgoingPacketLengths:vector ETV
attr interpolationmode none
attr recordingmode vector
attr source packetLength(packetPulled)
attr title "outgoing packet lengths"
attr unit b
vector 21 SingleCell_Standalone.server.ppp[0].ppp rcvdPkFromHl:vector(packetBytes) ETV
attr interpolationmode none
attr recordingmode vector(packetBytes)
attr source packetReceivedFromUpper
attr title "packets received from higher layer, packetBytes"
vector 22 SingleCell_Standalone.server.ppp[0].ppp transmissionState:vector ETV
attr interpolationmode sample-hold
attr recordingmode vector
attr source transmissionStateChanged
attr title "tx state"
vector 23 SingleCell_Standalone.server.ppp[0].ppp txPk:vector(packetBytes) ETV
attr interpolationmode none
attr recordingmode vector(packetBytes)
attr source packetSentToLower
attr title "packets transmitted, packetBytes"
vector 24 SingleCell_Standalone.server.ppp[0].queue queueLength:vector ETV
attr autoWarmupFilter false
attr interpolationmode sample-hold
attr recordingmode vector
attr source "warmup(atomic(constant0(packetPushEnded) + count(packetPushStarted) - count(packetPulled) - count(packetRemoved) - count(packetDropped)))"
attr title "queue length"
attr unit pk
vector 25 SingleCell_Standalone.server.ppp[0].queue queueBitLength:vector ETV
attr autoWarmupFilter false
attr interpolationmode sample-hold
attr recordingmode vector
attr source "warmup(atomic(constant0(packetPushEnded) + sum(packetLength(packetPushStarted)) - sum(packetLength(packetPulled)) - sum(packetLength(packetRemoved)) - sum(packetLength(packetDropped))))"
attr title "queue bit length"
attr unit b
vector 26 SingleCell_Standalone.router.ppp[0].ppp rxPkOk:vector(packetBytes) ETV
attr interpolationmode none
attr recordingmode vector(packetBytes)
attr source rxPkOk
attr title "packets received OK, packetBytes"
vector 27 SingleCell_Standalone.router.ppp[0].ppp passedUpPk:vector(packetBytes) ETV
attr interpolationmode none
attr recordingmode vector(packetBytes)
attr source packetSentToUpper
attr title "packets passed to higher layer, packetBytes"
vector 28 SingleCell_Standalone.router.ppp[1].queue incomingPacketLengths:vector ETV
attr interpolationmode none
attr recordingmode vector
attr source packetLength(packetPushStarted)
attr title "incoming packet lengths"
attr unit b
vector 29 SingleCell_Standalone.router.ppp[1].queue queueingTime:vector ETV
attr interpolationmode none
attr recordingmode vector
attr source queueingTime(packetPulled)
attr title "queueing times"
attr unit s
vector 30 SingleCell_Standalone.router.ppp[1].queue outgoingPacketLengths:vector ETV
attr interpolationmode none
attr recordingmode vector
attr source packetLength(packetPulled)
attr title "outgoing packet lengths"
attr unit b
vector 31 SingleCell_Standalone.router.ppp[1].ppp rcvdPkFromHl:vector(packetBytes) ETV
attr interpolationmode none
attr recordingmode vector(packetBytes)
attr source packetReceivedFromUpper
attr title "packets received from higher layer, packetBytes"
vector 32 SingleCell_Standalone.router.ppp[1].ppp transmissionState:vector ETV
attr interpolationmode sample-hold
attr recordingmode vector
attr source transmissionStateChanged
attr title "tx state"
vector 33 SingleCell_Standalone.router.ppp[1].ppp txPk:vector(packetBytes) ETV
attr interpolationmode none
attr recordingmode vector(packetBytes)
attr source packetSentToLower
attr title "packets transmitted, packetBytes"
vector 34 SingleCell_Standalone.router.ppp[1].queue queueLength:vector ETV
attr autoWarmupFilter false
attr interpolationmode sample-hold
attr recordingmode vector
attr source "warmup(atomic(constant0(packetPushEnded) + count(packetPushStarted) - count(packetPulled) - count(packetRemoved) - count(packetDropped)))"
attr title "queue length"
attr unit pk
vector 35 SingleCell_Standalone.router.ppp[1].queue queueBitLength:vector ETV
attr autoWarmupFilter false
attr interpolationmode sample-hold
attr recordingmode vector
attr source "warmup(atomic(constant0(packetPushEnded) + sum(packetLength(packetPushStarted)) - sum(packetLength(packetPulled)) - sum(packetLength(packetRemoved)) - sum(packetLength(packetDropped))))"
attr title "queue bit length"
attr unit b
vector 36 SingleCell_Standalone.upf.pppIf.ppp rxPkOk:vector(packetBytes) ETV
attr interpolationmode none
attr recordingmode vector(packetBytes)
attr source rxPkOk
attr title "packets received OK, packetBytes"
vector 37 SingleCell_Standalone.upf.pppIf.ppp passedUpPk:vector(packetBytes) ETV
attr interpolationmode none
attr recordingmode vector(packetBytes)
attr source packetSentToUpper
attr title "packets passed to higher layer, packetBytes"
vector 38 SingleCell_Standalone.upf.udp packetSent:vector(packetBytes) ETV
attr interpolationmode none
attr recordingmode vector(packetBytes)
attr source packetSent
attr title "packets sent, packetBytes"
vector 39 SingleCell_Standalone.upf.ppp[0].queue incomingPacketLengths:vector ETV
attr interpolationmode none
attr recordingmode vector
attr source packetLength(packetPushStarted)
attr title "incoming packet lengths"
attr unit b
vector 40 SingleCell_Standalone.upf.ppp[0].queue queueingTime:vector ETV
attr interpolationmode none
attr recordingmode vector
attr source queueingTime(packetPulled)
attr title "queueing times"
attr unit s
vector 41 SingleCell_Standalone.upf.ppp[0].queue outgoingPacketLengths:vector ETV
attr interpolationmode none
attr recordingmode vector
attr source packetLength(packetPulled)
attr title "outgoing packet lengths"
attr unit b
vector 42 SingleCell_Standalone.upf.ppp[0].ppp rcvdPkFromHl:vector(packetBytes) ETV
attr interpolationmode none
attr recordingmode vector(packetBytes)
attr source packetReceivedFromUpper
attr title "packets received from higher layer, packetBytes"
vector 43 SingleCell_Standalone.upf.ppp[0].ppp transmissionState:vector ETV
attr interpolationmode sample-hold
attr recordingmode vector
attr source transmissionStateChanged
attr title "tx state"
vector 44 SingleCell_Standalone.upf.ppp[0].ppp txPk:vector(packetBytes) ETV
attr interpolationmode none
attr recordingmode vector(packetBytes)
attr source packetSentToLower
attr title "packets transmitted, packetBytes"
vector 45 SingleCell_Standalone.upf.ppp[0].queue queueLength:vector ETV
attr autoWarmupFilter false
attr interpolationmode sample-hold
attr recordingmode vector
attr source "warmup(atomic(constant0(packetPushEnded) + count(packetPushStarted) - count(packetPulled) - count(packetRemoved) - count(packetDropped)))"
attr title "queue length"
attr unit pk
vector 46 SingleCell_Standalone.upf.ppp[0].queue queueBitLength:vector ETV
attr autoWarmupFilter false
attr interpolationmode sample-hold
attr recordingmode vector
attr source "warmup(atomic(constant0(packetPushEnded) + sum(packetLength(packetPushStarted)) - sum(packetLength(packetPulled)) - sum(packetLength(packetRemoved)) - sum(packetLength(packetDropped))))"
attr title "queue bit length"
attr unit b
vector 47 SingleCell_Standalone.iUpf.ppp[0].ppp rxPkOk:vector(packetBytes) ETV
attr interpolationmode none
attr recordingmode vector(packetBytes)
attr source rxPkOk
attr title "packets received OK, packetBytes"
vector 48 SingleCell_Standalone.iUpf.ppp[0].ppp passedUpPk:vector(packetBytes) ETV
attr interpolationmode none
attr recordingmode vector(packetBytes)
attr source packetSentToUpper
attr title "packets passed to higher layer, packetBytes"
vector 49 SingleCell_Standalone.iUpf.ppp[1].queue incomingPacketLengths:vector ETV
attr interpolationmode none
attr recordingmode vector
attr source packetLength(packetPushStarted)
attr title "incoming packet lengths"
attr unit b
vector 50 SingleCell_Standalone.iUpf.ppp[1].queue queueingTime:vector ETV
attr interpolationmode none
attr recordingmode vector
attr source queueingTime(packetPulled)
attr title "queueing times"
attr unit s
vector 51 SingleCell_Standalone.iUpf.ppp[1].queue outgoingPacketLengths:vector ETV
attr interpolationmode none
attr recordingmode vector
attr source packetLength(packetPulled)
attr title "outgoing packet lengths"
attr unit b
vector 52 SingleCell_Standalone.iUpf.ppp[1].ppp rcvdPkFromHl:vector(packetBytes) ETV
attr interpolationmode none
attr recordingmode vector(packetBytes)
attr source packetReceivedFromUpper
attr title "packets received from higher layer, packetBytes"
vector 53 SingleCell_Standalone.iUpf.ppp[1].ppp transmissionState:vector ETV
attr interpolationmode sample-hold
attr recordingmode vector
attr source transmissionStateChanged
attr title "tx state"
vector 54 SingleCell_Standalone.iUpf.ppp[1].ppp txPk:vector(packetBytes) ETV
attr interpolationmode none
attr recordingmode vector(packetBytes)
attr source packetSentToLower
attr title "packets transmitted, packetBytes"
vector 55 SingleCell_Standalone.iUpf.ppp[1].queue queueLength:vector ETV
attr autoWarmupFilter false
attr interpolationmode sample-hold
attr recordingmode vector
attr source "warmup(atomic(constant0(packetPushEnded) + count(packetPushStarted) - count(packetPulled) - count(packetRemoved) - count(packetDropped)))"
attr title "queue length"
attr unit pk
vector 56 SingleCell_Standalone.iUpf.ppp[1].queue queueBitLength:vector ETV
attr autoWarmupFilter false
attr interpolationmode sample-hold
attr recordingmode vector
attr source "warmup(atomic(constant0(packetPushEnded) + sum(packetLength(packetPushStarted)) - sum(packetLength(packetPulled)) - sum(packetLength(packetRemoved)) - sum(packetLength(packetDropped))))"
attr title "queue bit length"
attr unit b
vector 57 SingleCell_Standalone.gnb.pppIf.ppp rxPkOk:vector(packetBytes) ETV
attr interpolationmode none
attr recordingmode vector(packetBytes)
attr source rxPkOk
attr title "packets received OK, packetBytes"
vector 58 SingleCell_Standalone.gnb.pppIf.ppp passedUpPk:vector(packetBytes) ETV
attr interpolationmode none
attr recordingmode vector(packetBytes)
attr source packetSentToUpper
attr title "packets passed to higher layer, packetBytes"
vector 59 SingleCell_Standalone.gnb.udp packetReceived:vector(packetBytes) ETV
attr interpolationmode none
attr recordingmode vector(packetBytes)
attr source packetReceived
attr title "packets received, packetBytes"
vector 60 SingleCell_Standalone.gnb.cellularNic.pdcpRrc receivedPacketFromUpperLayer:vector(packetBytes) ETV
attr interpolationmode none
attr recordingmode vector(packetBytes)
attr source receivedPacketFromUpperLayer
vector 61 SingleCell_Standalone.gnb.cellularNic.pdcpRrc sentPacketToLowerLayer:vector(packetBytes) ETV
attr interpolationmode none
attr recordingmode vector(packetBytes)
attr source sentPacketToLowerLayer
vector 62 SingleCell_Standalone.gnb.cellularNic.rlc.um receivedPacketFromUpperLayer:vector(packetBytes) ETV
attr interpolationmode none
attr recordingmode vector(packetBytes)
attr source receivedPacketFromUpperLayer
vector 63 SingleCell_Standalone.gnb.cellularNic.mac receivedPacketFromUpperLayer:vector(packetBytes) ETV
attr interpolationmode none
attr recordingmode vector(packetBytes)
attr source receivedPacketFromUpperLayer
vector 64 SingleCell_Standalone.gnb.cellularNic.mac sentPacketToUpperLayer:vector(packetBytes) ETV
attr interpolationmode none
attr recordingmode vector(packetBytes)
attr source sentPacketToUpperLayer
vector 65 SingleCell_Standalone.gnb.cellularNic.rlc.um rlcPacketLossDl:vector ETV
attr recordingmode vector
attr source rlcPacketLossDl
attr title "rlc Packet Loss"
attr unit ""
vector 66 SingleCell_Standalone.gnb.cellularNic.rlc.um sentPacketToLowerLayer:vector(packetBytes) ETV
attr interpolationmode none
attr recordingmode vector(packetBytes)
attr source sentPacketToLowerLayer
vector 67 SingleCell_Standalone.gnb.cellularNic.mac sentPacketToLowerLayer:vector(packetBytes) ETV
attr interpolationmode none
attr recordingmode vector(packetBytes)
attr source sentPacketToLowerLayer
vector 68 SingleCell_Standalone.ue[0].cellularNic.nrChannelModel[0] measuredSinrUl:vector ETV
attr recordingmode vector
attr source measuredSinrUl
attr title "SINR measured at feedback computation, UL"
attr unit dB
vector 69 SingleCell_Standalone.ue[0].cellularNic.nrChannelModel[0] measuredSinrDl:vector ETV
attr recordingmode vector
attr source measuredSinrDl
attr title "SINR measured at feedback computation, DL"
attr unit dB
vector 70 SingleCell_Standalone.gnb.cellularNic.mac receivedPacketFromLowerLayer:vector(packetBytes) ETV
attr interpolationmode none
attr recordingmode vector(packetBytes)
attr source receivedPacketFromLowerLayer
vector 71 SingleCell_Standalone.ue[0].cellularNic.nrPhy averageCqiDl:vector ETV
attr recordingmode vector
attr source averageCqiDl
attr title "Average Cqi reported in DL"
attr unit cqi
vector 72 SingleCell_Standalone.ue[0].cellularNic.nrChannelModel[0] distance:vector ETV
attr recordingmode vector
attr source distance
attr title "distance between UE and serving base station"
attr unit meters
vector 73 SingleCell_Standalone.ue[0].cellularNic.nrChannelModel[0] rcvdSinrDl:vector ETV
attr recordingmode vector
attr source rcvdSinrDl
attr title "SINR measured at packet reception, DL"
attr unit dB
vector 74 SingleCell_Standalone.ue[0].cellularNic.nrMac receivedPacketFromLowerLayer:vector(packetBytes) ETV
attr interpolationmode none
attr recordingmode vector(packetBytes)
attr source receivedPacketFromLowerLayer
vector 75 SingleCell_Standalone.ue[0].cellularNic.nrMac sentPacketToLowerLayer:vector(packetBytes) ETV
attr interpolationmode none
attr recordingmode vector(packetBytes)
attr source sentPacketToLowerLayer
vector 76 SingleCell_Standalone.gnb.cellularNic.mac macDelayDl:vector ETV
attr recordingmode vector
attr source macDelayDl
attr title "Delay at the MAC layer UL"
attr unit s
vector 77 SingleCell_Standalone.ue[0].cellularNic.nrMac sentPacketToUpperLayer:vector(packetBytes) ETV
attr interpolationmode none
attr recordingmode vector(packetBytes)
attr source sentPacketToUpperLayer
vector 78 SingleCell_Standalone.ue[0].cellularNic.nrRlc.um receivedPacketFromLowerLayer:vector(packetBytes) ETV
attr interpolationmode none
attr recordingmode vector(packetBytes)
attr source receivedPacketFromLowerLayer
vector 79 SingleCell_Standalone.ue[0].cellularNic.nrRlc.um rlcPduThroughputDl:vector ETV
attr recordingmode vector
attr source rlcPduThroughputDl
attr title "Throughput at the rlc layer DL"
attr unit Bps
vector 80 SingleCell_Standalone.ue[0].cellularNic.nrRlc.um rlcPduDelayDl:vector ETV
attr recordingmode vector
attr source rlcPduDelayDl
attr title "Delay at the rlc layer UL"
attr unit s
vector 81 SingleCell_Standalone.ue[0].cellularNic.nrRlc.um rlcPduPacketLossDl:vector ETV
attr recordingmode vector
attr source rlcPduPacketLossDl
attr title "rlc Packet Loss"
attr unit ""
vector 82 SingleCell_Standalone.ue[0].cellularNic.nrRlc.um rlcThroughputDl:vector ETV
attr recordingmode vector
attr source rlcThroughputDl
attr title "Throughput at the rlc layer DL"
attr unit Bps
vector 83 SingleCell_Standalone.ue[0].cellularNic.nrRlc.um rlcPacketLossDl:vector ETV
attr recordingmode vector
attr source rlcPacketLossDl
attr title "rlc Packet Loss"
attr unit ""
vector 84 SingleCell_Standalone.ue[0].cellularNic.nrRlc.um rlcPacketLossTotal:vector ETV
attr recordingmode vector
attr source rlcPacketLossTotal
attr title "rlc Packet Loss"
attr unit ""
vector 85 SingleCell_Standalone.ue[0].cellularNic.nrRlc.um rlcDelayDl:vector ETV
attr recordingmode vector
attr source rlcDelayDl
attr title "Delay at the rlc layer DL"
attr unit s
vector 86 SingleCell_Standalone.ue[0].cellularNic.nrRlc.um sentPacketToUpperLayer:vector(packetBytes) ETV
attr interpolationmode none
attr recordingmode vector(packetBytes)
attr source sentPacketToUpperLayer
vector 87 SingleCell_Standalone.ue[0].cellularNic.pdcpRrc receivedPacketFromLowerLayer:vector(packetBytes) ETV
attr interpolationmode none
attr recordingmode vector(packetBytes)
attr source receivedPacketFromLowerLayer
vector 88 SingleCell_Standalone.ue[0].cellularNic.pdcpRrc sentPacketToUpperLayer:vector(packetBytes) ETV
attr interpolationmode none
attr recordingmode vector(packetBytes)
attr source sentPacketToUpperLayer
vector 89 SingleCell_Standalone.ue[0].udp packetReceived:vector(packetBytes) ETV
attr interpolationmode none
attr recordingmode vector(packetBytes)
attr source packetReceived
attr title "packets received, packetBytes"
vector 90 SingleCell_Standalone.ue[0].app[0] cbrReceivedBytes:vector ETV
attr recordingmode vector
attr source cbrReceivedBytesSignal
attr title "Bytes received at the application level"
attr unit Bps
vector 91 SingleCell_Standalone.ue[0].app[0] cbrFrameDelay:vector ETV
attr recordingmode vector
attr source cbrFrameDelaySignal
attr title "Cbr Frame Delay"
attr unit s
vector 92 SingleCell_Standalone.ue[0].app[0] cbrRcvdPkt:vector ETV
attr recordingmode vector
attr source cbrRcvdPkt
attr title "Received packet ID"
attr unit ""
vector 93 SingleCell_Standalone.ue[0].cellularNic.nrMac harqErrorRate_1st_Dl:vector ETV
attr recordingmode vector
attr source harqErrorRate_1st_Dl
attr title "Harq Error Rate Dl (1st tx)"
attr unit ""
vector 94 SingleCell_Standalone.ue[0].cellularNic.nrMac harqErrorRateDl:vector ETV
attr recordingmode vector
attr source harqErrorRateDl
attr title "Harq Error Rate Dl"
attr unit ""
vector 95 SingleCell_Standalone.ue[0].cellularNic.nrMac harqTxAttemptsDl:vector ETV
attr recordingmode vector
attr source harqTxAttemptsDl
attr title "Harq Tx Attempts Dl"
attr unit ""
0	0	1	0
1	0	1	0
2	0	1	0
3	0	1	0
4	0	1	0
5	0	1	0
6	0	1	0
7	0	1	0
8	0	1	0
9	0	1	0
9	10276	1.00246430857	1
9	10381	1.01246430857	2
9	10487	1.02246430857	3
9	10590	1.03246430857	4
9	10695	1.04246430857	5
9	10802	1.05246430857	6
9	10905	1.06246430857	7
9	11010	1.07246430857	8
9	11116	1.08246430857	9
9	11219	1.09246430857	10
9	11324	1.10246430857	11
9	11430	1.11246430857	12
9	11533	1.12246430857	13
9	11638	1.13246430857	14
9	11744	1.14246430857	15
9	11847	1.15246430857	16
9	11952	1.16246430857	17
9	12058	1.17246430857	18
9	12161	1.18246430857	19
9	12266	1.19246430857	20
9	12372	1.20246430857	21
9	12475	1.21246430857	22
9	12580	1.22246430857	23
9	12686	1.23246430857	24
9	12789	1.24246430857	25
9	12894	1.25246430857	26
9	13000	1.26246430857	27
9	13103	1.27246430857	28
9	13208	1.28246430857	29
9	13314	1.29246430857	30
9	13417	1.30246430857	31
9	13522	1.31246430857	32
9	13628	1.32246430857	33
9	13731	1.33246430857	34
9	13836	1.34246430857	35
9	13942	1.35246430857	36
9	14045	1.36246430857	37
9	14150	1.37246430857	38
9	14256	1.38246430857	39
9	14359	1.39246430857	40
9	14464	1.40246430857	41
9	14570	1.41246430857	42
9	14673	1.42246430857	43
9	14778	1.43246430857	44
9	14884	1.44246430857	45
9	14987	1.45246430857	46
9	15092	1.46246430857	47
9	15198	1.47246430857	48
9	15301	1.48246430857	49
9	15406	1.49246430857	50
9	15512	1.50246430857	51
9	15615	1.51246430857	52
9	15720	1.52246430857	53
9	15826	1.53246430857	54
9	15929	1.54246430857	55
9	16034	1.55246430857	56
9	16140	1.56246430857	57
9	16243	1.57246430857	58
9	16348	1.58246430857	59
9	16454	1.59246430857	60
9	16557	1.60246430857	61
9	16662	1.61246430857	62
9	16768	1.62246430857	63
9	16871	1.63246430857	64
9	16976	1.64246430857	65
9	17082	1.65246430857	66
9	17185	1.66246430857	67
9	17290	1.67246430857	68
9	17396	1.68246430857	69
9	17499	1.69246430857	70
9	17604	1.70246430857	71
9	17710	1.71246430857	72
9	17813	1.72246430857	73
9	17918	1.73246430857	74
9	18024	1.74246430857	75
9	18127	1.75246430857	76
9	18232	1.76246430857	77
9	18338	1.77246430857	78
9	18441	1.78246430857	79
9	18546	1.79246430857	80
9	18652	1.80246430857	81
9	18755	1.81246430857	82
9	18860	1.82246430857	83
9	18966	1.83246430857	84
9	19069	1.84246430857	85
9	19174	1.85246430857	86
9	19280	1.86246430857	87
9	19383	1.87246430857	88
9	19488	1.88246430857	89
9	19594	1.89246430857	90
9	19697	1.90246430857	91
9	19802	1.91246430857	92
9	19908	1.92246430857	93
9	20011	1.93246430857	94
9	20116	1.94246430857	95
9	20222	1.95246430857	96
9	20325	1.96246430857	97
10	0	1	0
11	0	1	0
12	0	1	0
12	10333	1.008	1
12	10438	1.018	2
12	10542	1.028	3
12	10647	1.038	4
12	10752	1.048	5
12	10857	1.058	6
12	10962	1.068	7
12	11067	1.078	8
12	11171	1.088	9
12	11276	1.098	10
12	11381	1.108	11
12	11485	1.118	12
12	11590	1.128	13
12	11695	1.138	14
12	11799	1.148	15
12	11904	1.158	16
12	12009	1.168	17
12	12113	1.178	18
12	12218	1.188	19
12	12323	1.198	20
12	12427	1.208	21
12	12532	1.218	22
12	12637	1.228	23
12	12741	1.238	24
12	12846	1.248	25
12	12951	1.258	26
12	13055	1.268	27
12	13160	1.278	28
12	13265	1.288	29
12	13369	1.298	30
12	13474	1.308	31
12	13579	1.318	32
12	13683	1.328	33
12	13788	1.338	34
12	13893	1.348	35
12	13997	1.358	36
12	14102	1.368	37
12	14207	1.378	38
12	14311	1.388	39
12	14416	1.398	40
12	14521	1.408	41
12	14625	1.418	42
12	14730	1.428	43
12	14835	1.438	44
12	14939	1.448	45
12	15044	1.458	46
12	15149	1.468	47
12	15253	1.478	48
12	15358	1.488	49
12	15463	1.498	50
12	15567	1.508	51
12	15672	1.518	52
12	15777	1.528	53
12	15881	1.538	54
12	15986	1.548	55
12	16091	1.558	56
12	16195	1.568	57
12	16300	1.578	58
12	16405	1.588	59
12	16509	1.598	60
12	16614	1.608	61
12	16719	1.618	62
12	16823	1.628	63
12	16928	1.638	64
12	17033	1.648	65
12	17137	1.658	66
12	17242	1.668	67
12	17347	1.678	68
12	17451	1.688	69
12	17556	1.698	70
12	17661	1.708	71
12	17765	1.718	72
12	17870	1.728	73
12	17975	1.738	74
12	18079	1.748	75
12	18184	1.758	76
12	18289	1.768	77
12	18393	1.778	78
12	18498	1.788	79
12	18603	1.798	80
12	18707	1.808	81
12	18812	1.818	82
12	18917	1.828	83
12	19021	1.838	84
12	19126	1.848	85
12	19231	1.858	86
12	19335	1.868	87
12	19440	1.878	88
12	19545	1.888	89
12	19649	1.898	90
12	19754	1.908	91
12	19859	1.918	92
12	19963	1.928	93
12	20068	1.938	94
12	20173	1.948	95
12	20277	1.958	96
12	20382	1.968	97
13	0	1	0
14	0	1	0
15	10241	1	0
15	10245	1.001	0
15	10250	1.002	0
15	10284	1.003	0
15	10293	1.004	0
15	10306	1.005	0
15	10312	1.006	0
15	10316	1.007	0
15	10324	1.008	0
15	10339	1.009	0
15	10345	1.01	0
15	10351	1.011	0
15	10355	1.012	0
15	10388	1.013	0
15	10398	1.014	0
15	10410	1.015	0
15	10416	1.016	0
15	10422	1.017	0
15	10429	1.018	0
15	10443	1.019	0
15	10450	1.02	0
15	10455	1.021	0
15	10459	1.022	0
15	10494	1.023	0
15	10503	1.024	0
15	10514	1.025	0
15	10521	1.026	0
15	10526	1.027	0
15	10533	1.028	0
15	10549	1.029	0
15	10555	1.03	0
15	10559	1.031	0
15	10564	1.032	0
15	10598	1.033	0
15	10607	1.034	0
15	10620	1.035	0
15	10626	1.036	0
15	10630	1.037	0
15	10638	1.038	0
15	10653	1.039	0
15	10659	1.04	0
15	10665	1.041	0
15	10669	1.042	0
15	10702	1.043	0
15	10712	1.044	0
15	10724	1.045	0
15	10730	1.046	0
15	10736	1.047	0
15	10743	1.048	0
15	10757	1.049	0
15	10765	1.05	0
15	10770	1.051	0
15	10774	1.052	0
15	10809	1.053	0
15	10818	1.054	0
15	10829	1.055	0
15	10836	1.056	0
15	10841	1.057	0
15	10848	1.058	0
15	10864	1.059	0
15	10870	1.06	0
15	10874	1.061	0
15	10879	1.062	0
15	10913	1.063	0
15	10922	1.064	0
15	10935	1.065	0
15	10941	1.066	0
15	10945	1.067	0
15	10953	1.068	0
15	10968	1.069	0
15	10974	1.07	0
15	10980	1.071	0
15	10984	1.072	0
15	11017	1.073	0
15	11027	1.074	0
15	11039	1.075	0
15	11045	1.076	0
15	11051	1.077	0
15	11058	1.078	0
15	11072	1.079	0
15	11079	1.08	0
15	11084	1.081	0
15	11088	1.082	0
15	11123	1.083	0
15	11132	1.084	0
15	11143	1.085	0
15	11150	1.086	0
15	11155	1.087	0
15	11162	1.088	0
15	11178	1.089	0
15	11184	1.09	0
15	11188	1.091	0
15	11193	1.092	0
15	11227	1.093	0
15	11236	1.094	0
15	11249	1.095	0
15	11255	1.096	0
15	11259	1.097	0
15	11267	1.098	0
15	11282	1.099	0
15	11288	1.1	0
15	11294	1.101	0
15	11298	1.102	0
15	11331	1.103	0
15	11341	1.104	0
15	11353	1.105	0
15	11359	1.106	0
15	11365	1.107	0
15	11372	1.108	0